# vtk DataFile Version 2.0
LECODE to Underworld Data
ASCII
DATASET STRUCTURED_POINTS
DIMENSIONS        300        360  1
ORIGIN   207050.000  4789039.000        0.000
SPACING      100.000      100.000        1.000
POINT_DATA     108000
SCALARS elevation double 1
LOOKUP_TABLE default
     164.870      164.446      163.947      163.389      162.652      161.557      160.365      159.086      157.745      156.410      155.135      153.953      152.890      151.959      151.158      150.494      149.965      149.551      149.233      148.997      148.839      148.763      148.781      148.902      149.132      149.474      149.935      150.509      151.177      151.900      152.617      153.257      153.754      154.050      154.111      153.909      153.435      152.713      151.795      150.757      149.686      148.664      147.757      147.032      146.534      146.287      146.294      146.526      146.934      147.464      148.064      148.681      149.266      149.783      150.214      150.569      150.878      151.188      151.546      151.991      152.551      153.248      154.101      155.128      156.323      157.662      159.114      160.656      162.274      163.955      165.671      167.367      168.978      170.450      171.732      172.783      173.554      173.977      174.003      173.617      172.832      171.674      170.177      168.373      166.318      164.112      161.878      159.749      157.838      156.251      155.097      154.490      154.493      155.124      156.353      158.087      160.218      162.622      165.158      167.677      170.049      172.174      174.016      175.582      176.897      178.013      178.994      179.900      180.791      181.724      182.739      183.845      185.034      186.278      187.546      188.819      190.078      191.279      192.344      193.196      193.781      194.075      194.074      193.777      193.174      192.276      191.145      189.859      188.489      187.082      185.663      184.249      182.863      181.528      180.258      179.064      177.957      176.967      176.135      175.505      175.102      174.935      175.009      175.319      175.855      176.578      177.419      178.308      179.189      180.021      180.766      181.379      181.819      182.087      182.223      182.278      182.302      182.351      182.501      182.848      183.470      184.418      185.710      187.339      189.287      191.518      193.958      196.499      199.040      201.497      203.812      205.943      207.860      209.558      211.066      212.429      213.697      214.910      216.089      217.240      218.370      219.473      220.532      221.526      222.434      223.241      223.945      224.555      225.080      225.532      225.924      226.270      226.583      226.887      227.218      227.616      228.119      228.752      229.526      230.454      231.542      232.769      234.089      235.431      236.712      237.874      238.876      239.689      240.307      240.745      241.039      241.259      241.489      241.806      242.263      242.899      243.736      244.785      246.040      247.487      249.112      250.896      252.831      254.919      257.164      259.553      262.058      264.633      267.210      269.714      272.073      274.209      276.051      277.545      278.653      279.379      279.739      279.745      279.397      278.686      277.609      276.171      274.384      272.262      269.836      267.167      264.352      261.514      258.765      256.182      253.819      251.712      249.848      248.182      246.636      245.117      243.553      241.912      240.196      238.429      236.641      234.886      233.245      231.797      230.594      229.643      228.916      228.382      228.028      227.836      227.765      227.750      227.720      227.627      227.430      227.067      226.459      225.517      224.170      222.393      220.197      217.612      214.694      211.542      208.283      205.053      201.978      199.157      196.672      194.573      192.877      191.568      190.611      189.939      189.498      189.235      189.100      189.032      189.001      188.993
     164.241      163.817      163.342      162.778      162.031      161.009      159.845      158.569      157.312      156.076      154.835      153.722      152.784      151.909      151.156      150.576      150.098      149.713      149.432      149.230      149.088      149.029      149.058      149.184      149.423      149.755      150.182      150.744      151.383      152.025      152.698      153.293      153.711      153.955      153.971      153.727      153.257      152.514      151.576      150.600      149.553      148.526      147.666      146.989      146.496      146.272      146.293      146.533      146.963      147.483      148.076      148.720      149.315      149.820      150.279      150.660      150.973      151.302      151.695      152.158      152.713      153.441      154.323      155.301      156.497      157.866      159.261      160.739      162.375      164.035      165.637      167.340      168.976      170.378      171.661      172.763      173.542      173.980      174.050      173.684      172.970      171.851      170.333      168.590      166.618      164.360      162.117      160.093      158.131      156.482      155.349      154.690      154.639      155.229      156.340      158.051      160.184      162.436      164.947      167.527      169.837      171.894      173.792      175.364      176.604      177.728      178.718      179.571      180.429      181.378      182.390      183.454      184.693      186.006      187.263      188.596      189.964      191.209      192.300      193.240      193.880      194.204      194.256      193.986      193.429      192.583      191.439      190.159      188.856      187.406      185.923      184.531      183.096      181.652      180.331      179.114      177.901      176.828      175.976      175.272      174.801      174.592      174.609      174.880      175.382      176.033      176.858      177.747      178.578      179.400      180.173      180.788      181.230      181.534      181.700      181.783      181.839      181.920      182.095      182.443      183.088      184.046      185.253      186.867      188.829      190.929      193.286      195.863      198.357      200.688      203.064      205.260      207.126      208.898      210.534      211.952      213.266      214.604      215.872      217.028      218.228      219.406      220.459      221.466      222.431      223.261      223.961      224.621      225.197      225.671      226.115      226.529      226.895      227.249      227.655      228.129      228.668      229.366      230.220      231.163      232.253      233.532      234.853      236.109      237.382      238.519      239.417      240.170      240.745      241.118      241.355      241.537      241.735      242.007      242.440      243.077      243.876      244.875      246.146      247.588      249.116      250.914      252.887      254.877      257.088      259.546      262.029      264.492      267.140      269.700      271.958      274.140      276.072      277.560      278.691      279.495      279.895      279.941      279.631      278.921      277.900      276.503      274.670      272.560      270.257      267.544      264.691      262.014      259.279      256.637      254.343      252.307      250.385      248.698      247.220      245.665      244.041      242.448      240.757      238.938      237.166      235.513      233.858      232.414      231.304      230.386      229.677      229.194      228.881      228.710      228.660      228.651      228.612      228.482      228.235      227.812      227.092      226.032      224.647      222.728      220.361      217.796      214.820      211.503      208.239      205.109      201.933      199.072      196.717      194.598      192.863      191.610      190.674      189.984      189.549      189.300      189.161      189.091      189.063      189.053
     163.534      163.113      162.644      162.092      161.365      160.374      159.255      158.042      156.856      155.701      154.555      153.539      152.690      151.905      151.234      150.721      150.300      149.963      149.719      149.546      149.427      149.386      149.427      149.559      149.796      150.115      150.517      151.039      151.626      152.207      152.807      153.324      153.670      153.847      153.805      153.521      153.029      152.281      151.354      150.401      149.388      148.402      147.580      146.938      146.478      146.279      146.317      146.570      147.009      147.534      148.131      148.781      149.386      149.904      150.381      150.782      151.116      151.467      151.885      152.371      152.945      153.689      154.579      155.557      156.745      158.094      159.462      160.905      162.499      164.114      165.675      167.340      168.947      170.337      171.620      172.736      173.538      174.008      174.121      173.806      173.141      172.072      170.602      168.899      166.964      164.739      162.516      160.498      158.528      156.852      155.681      154.968      154.847      155.361      156.394      158.022      160.079      162.268      164.723      167.259      169.539      171.574      173.453      175.005      176.226      177.325      178.287      179.113      179.944      180.873      181.877      182.947      184.211      185.565      186.877      188.277      189.724      191.047      192.214      193.234      193.952      194.348      194.472      194.271      193.772      192.979      191.879      190.627      189.334      187.875      186.358      184.918      183.419      181.898      180.497      179.198      177.901      176.747      175.826      175.053      174.515      174.247      174.206      174.416      174.863      175.465      176.243      177.094      177.899      178.704      179.470      180.091      180.549      180.881      181.082      181.201      181.297      181.417      181.622      181.990      182.642      183.587      184.764      186.330      188.228      190.259      192.542      195.046      197.483      199.778      202.142      204.354      206.262      208.101      209.826      211.340      212.753      214.194      215.555      216.787      218.056      219.290      220.384      221.430      222.431      223.298      224.036      224.742      225.371      225.901      226.410      226.897      227.337      227.766      228.258      228.814      229.429      230.201      231.121      232.113      233.236      234.527      235.837      237.064      238.287      239.356      240.181      240.851      241.345      241.646      241.819      241.941      242.087      242.317      242.713      243.317      244.087      245.055      246.293      247.703      249.202      250.971      252.915      254.878      257.062      259.494      261.953      264.399      267.035      269.595      271.865      274.070      276.040      277.575      278.763      279.634      280.100      280.202      279.942      279.274      278.284      276.915      275.106      273.018      270.738      268.053      265.234      262.591      259.892      257.281      255.008      252.982      251.062      249.368      247.879      246.310      244.674      243.076      241.391      239.590      237.845      236.226      234.614      233.217      232.153      231.287      230.631      230.193      229.921      229.783      229.753      229.748      229.692      229.518      229.203      228.688      227.850      226.661      225.149      223.096      220.605      217.941      214.884      211.509      208.213      205.071      201.898      199.051      196.716      194.620      192.908      191.671      190.748      190.068      189.639      189.392      189.255      189.185      189.155      189.145
     162.843      162.427      161.968      161.431      160.728      159.772      158.705      157.559      156.449      155.380      154.332      153.413      152.654      151.958      151.367      150.918      150.552      150.261      150.051      149.905      149.808      149.783      149.834      149.970      150.201      150.503      150.877      151.353      151.881      152.396      152.918      153.353      153.624      153.732      153.633      153.309      152.797      152.045      151.133      150.206      149.230      148.286      147.506      146.902      146.477      146.305      146.363      146.631      147.080      147.612      148.215      148.872      149.487      150.018      150.511      150.931      151.283      151.655      152.094      152.599      153.189      153.946      154.842      155.821      157.001      158.334      159.678      161.091      162.646      164.220      165.741      167.367      168.947      170.321      171.602      172.729      173.553      174.055      174.212      173.950      173.338      172.325      170.910      169.254      167.360      165.170      162.969      160.956      158.974      157.266      156.049      155.276      155.077      155.505      156.453      157.990      159.961      162.079      164.469      166.951      169.189      171.193      173.042      174.566      175.760      176.829      177.760      178.558      179.364      180.273      181.271      182.348      183.636      185.033      186.397      187.866      189.393      190.799      192.052      193.166      193.980      194.467      194.688      194.581      194.162      193.439      192.399      191.186      189.909      188.439      186.887      185.393      183.823      182.218      180.731      179.349      177.965      176.732      175.742      174.902      174.297      173.967      173.865      174.010      174.393      174.937      175.656      176.457      177.224      178.001      178.752      179.371      179.841      180.199      180.435      180.592      180.729      180.889      181.126      181.517      182.175      183.107      184.254      185.769      187.601      189.560      191.766      194.193      196.569      198.823      201.168      203.391      205.335      207.237      209.048      210.656      212.169      213.716      215.174      216.489      217.836      219.137      220.285      221.379      222.430      223.345      224.133      224.896      225.588      226.183      226.766      227.335      227.857      228.370      228.952      229.597      230.291      231.141      232.130      233.172      234.328      235.631      236.929      238.125      239.295      240.293      241.040      241.625      242.029      242.251      242.355      242.410      242.496      242.678      243.030      243.595      244.329      245.261      246.459      247.831      249.297      251.032      252.942      254.874      257.026      259.425      261.858      264.282      266.906      269.465      271.747      273.980      275.993      277.583      278.837      279.786      280.329      280.497      280.298      279.681      278.730      277.392      275.609      273.542      271.282      268.622      265.832      263.217      260.546      257.958      255.701      253.681      251.759      250.055      248.552      246.970      245.323      243.723      242.045      240.264      238.551      236.969      235.401      234.052      233.036      232.221      231.618      231.227      230.995      230.891      230.879      230.877      230.800      230.577      230.187      229.571      228.605      227.279      225.631      223.436      220.815      218.050      214.913      211.482      208.158      205.009      201.846      199.021      196.711      194.643      192.957      191.740      190.833      190.164      189.741      189.498      189.361      189.292      189.262      189.251
     162.106      161.697      161.250      160.733      160.058      159.145      158.139      157.072      156.050      155.077      154.139      153.329      152.669      152.071      151.567      151.186      150.879      150.637      150.465      150.347      150.273      150.265      150.325      150.462      150.684      150.963      151.301      151.722      152.181      152.620      153.053      153.395      153.583      153.616      153.453      153.089      152.556      151.803      150.909      150.013      149.079      148.184      147.452      146.891      146.506      146.367      146.448      146.736      147.198      147.740      148.350      149.016      149.643      150.188      150.698      151.135      151.505      151.895      152.353      152.874      153.477      154.244      155.145      156.123      157.295      158.611      159.930      161.312      162.829      164.361      165.842      167.429      168.977      170.335      171.613      172.749      173.597      174.132      174.337      174.134      173.583      172.635      171.282      169.681      167.835      165.687      163.512      161.505      159.508      157.763      156.492      155.647      155.357      155.686      156.533      157.962      159.831      161.864      164.175      166.589      168.776      170.737      172.548      174.037      175.199      176.234      177.131      177.898      178.679      179.569      180.562      181.649      182.964      184.406      185.828      187.371      188.987      190.487      191.837      193.062      193.992      194.591      194.933      194.943      194.625      193.991      193.026      191.861      190.603      189.123      187.529      185.974      184.324      182.625      181.044      179.571      178.094      176.777      175.715      174.803      174.127      173.729      173.556      173.624      173.928      174.398      175.042      175.776      176.492      177.230      177.956      178.569      179.049      179.433      179.708      179.906      180.089      180.294      180.567      180.981      181.647      182.564      183.676      185.136      186.894      188.774      190.893      193.235      195.541      197.748      200.070      202.302      204.281      206.248      208.149      209.859      211.480      213.142      214.710      216.120      217.558      218.939      220.154      221.311      222.425      223.403      224.253      225.089      225.860      226.534      227.207      227.874      228.494      229.105      229.792      230.540      231.324      232.262      233.327      234.423      235.613      236.927      238.208      239.366      240.474      241.390      242.048      242.534      242.838      242.971      242.996      242.975      242.994      243.120      243.421      243.940      244.632      245.519      246.669      247.996      249.421      251.113      252.982      254.875      256.988      259.350      261.751      264.152      266.761      269.320      271.618      273.883      275.948      277.604      278.937      279.977      280.609      280.855      280.728      280.171      279.265      277.963      276.208      274.162      271.923      269.287      266.524      263.937      261.294      258.730      256.487      254.474      252.548      250.833      249.318      247.721      246.064      244.463      242.795      241.036      239.356      237.815      236.296      234.999      234.034      233.275      232.730      232.393      232.206      232.139      232.148      232.147      232.047      231.767      231.291      230.560      229.446      227.962      226.159      223.804      221.038      218.160      214.934      211.443      208.092      204.939      201.791      198.993      196.715      194.682      193.027      191.835      190.946      190.291      189.876      189.635      189.501      189.431      189.401      189.389
     160.902      160.508      160.082      159.599      158.975      158.137      157.238      156.307      155.436      154.632      153.883      153.260      152.770      152.341      151.986      151.725      151.519      151.362      151.255      151.186      151.153      151.173      151.247      151.386      151.589      151.828      152.100      152.424      152.762      153.069      153.348      153.530      153.577      153.482      153.214      152.780      152.214      151.460      150.598      149.756      148.895      148.086      147.436      146.951      146.637      146.555      146.679      147.000      147.488      148.046      148.671      149.353      149.999      150.567      151.105      151.572      151.969      152.388      152.874      153.420      154.042      154.822      155.727      156.699      157.855      159.141      160.420      161.750      163.202      164.666      166.081      167.602      169.101      170.431      171.702      172.856      173.741      174.331      174.617      174.512      174.064      173.226      171.982      170.476      168.716      166.641      164.513      162.520      160.500      158.693      157.332      156.363      155.914      156.069      156.739      157.977      159.667      161.548      163.719      166.012      168.107      169.994      171.740      173.172      174.282      175.261      176.103      176.823      177.562      178.425      179.411      180.516      181.879      183.398      184.919      186.589      188.357      190.015      191.530      192.944      194.071      194.862      195.407      195.616      195.468      194.985      194.147      193.064      191.837      190.339      188.675      187.018      185.234      183.379      181.642      180.018      178.389      176.933      175.752      174.719      173.922      173.406      173.110      173.041      173.207      173.546      174.057      174.672      175.297      175.965      176.648      177.249      177.746      178.175      178.516      178.785      179.046      179.327      179.658      180.111      180.786      181.676      182.728      184.091      185.723      187.467      189.440      191.637      193.826      195.953      198.236      200.482      202.523      204.599      206.654      208.535      210.338      212.196      213.949      215.521      217.113      218.632      219.962      221.228      222.455      223.544      224.505      225.469      226.380      227.194      228.026      228.867      229.659      230.442      231.315      232.240      233.182      234.271      235.466      236.652      237.897      239.223      240.470      241.557      242.552      243.325      243.828      244.144      244.276      244.259      244.152      244.006      243.915      243.951      244.169      244.613      245.234      246.046      247.114      248.361      249.713      251.331      253.127      254.951      256.998      259.297      261.646      264.008      266.593      269.153      271.477      273.798      275.951      277.717      279.181      280.374      281.156      281.531      281.525      281.068      280.235      278.991      277.281      275.271      273.065      270.471      267.757      265.219      262.626      260.107      257.894      255.894      253.965      252.234      250.697      249.077      247.404      245.799      244.144      242.422      240.797      239.322      237.884      236.674      235.795      235.131      234.687      234.441      234.333      234.331      234.379      234.382      234.245      233.868      233.247      232.317      230.952      229.197      227.130      224.499      221.484      218.413      215.034      211.442      208.044      204.884      201.762      199.012      196.789      194.814      193.214      192.063      191.206      190.573      190.172      189.937      189.805      189.736      189.705      189.692
     159.768      159.393      158.995      158.554      157.989      157.239      156.459      155.679      154.971      154.345      153.793      153.362      153.043      152.781      152.573      152.427      152.318      152.241      152.193      152.168      152.168      152.207      152.287      152.413      152.580      152.759      152.948      153.155      153.353      153.514      153.627      153.644      153.547      153.327      152.959      152.464      151.871      151.125      150.303      149.522      148.741      148.023      147.462      147.059      146.823      146.805      146.978      147.340      147.858      148.438      149.081      149.780      150.446      151.034      151.596      152.086      152.503      152.941      153.444      154.004      154.635      155.420      156.322      157.286      158.425      159.684      160.928      162.215      163.613      165.017      166.374      167.837      169.288      170.592      171.855      173.023      173.942      174.585      174.952      174.951      174.613      173.896      172.776      171.381      169.720      167.734      165.662      163.686      161.640      159.763      158.297      157.185      156.552      156.502      156.961      157.972      159.444      161.136      163.128      165.263      167.234      169.023      170.682      172.043      173.096      174.021      174.815      175.498      176.209      177.056      178.045      179.173      180.585      182.181      183.799      185.596      187.520      189.347      191.047      192.678      194.040      195.062      195.857      196.310      196.372      196.073      195.386      194.398      193.208      191.688      189.947      188.179      186.255      184.241      182.349      180.581      178.811      177.232      175.947      174.809      173.901      173.272      172.850      172.634      172.644      172.829      173.179      173.648      174.158      174.734      175.354      175.931      176.438      176.910      177.316      177.657      177.997      178.353      178.742      179.231      179.911      180.765      181.750      183.007      184.504      186.104      187.922      189.962      192.023      194.060      196.290      198.538      200.627      202.801      204.999      207.045      209.026      211.081      213.025      214.767      216.529      218.205      219.671      221.070      222.435      223.663      224.764      225.885      226.965      227.948      228.967      230.010      231.002      231.984      233.067      234.191      235.307      236.560      237.893      239.173      240.473      241.804      243.008      244.012      244.882      245.496      245.832      245.965      245.914      245.737      245.493      245.217      245.012      244.953      245.084      245.447      245.991      246.720      247.694      248.848      250.114      251.643      253.349      255.092      257.057      259.279      261.564      263.877      266.430      268.986      271.333      273.710      275.954      277.837      279.441      280.798      281.742      282.260      282.386      282.039      281.288      280.107      278.445      276.471      274.296      271.739      269.067      266.569      264.017      261.531      259.336      257.340      255.399      253.643      252.077      250.430      248.736      247.126      245.484      243.797      242.227      240.819      239.462      238.338      237.543      236.973      236.629      236.477      236.451      236.516      236.601      236.608      236.431      235.953      235.178      234.039      232.408      230.367      228.024      225.109      221.839      218.572      215.041      211.354      207.919      204.765      201.683      198.995      196.838      194.935      193.398      192.297      191.478      190.873      190.488      190.261      190.133      190.064      190.033      190.019